 Gaussian 09, Revision D.01,
 Gaussian 09:  ES64L-G09RevD.01 24-Apr-2013

 ----------------------------------------------------------------------
 # B3LYP/def2QZVPP Int(Grid=UltraFineGrid) SCF(verytight,maxcycles=1000
 )
 ----------------------------------------------------------------------

 ----
 TEST
 ----
 Symbolic Z-matrix:
 Charge =  0 Multiplicity = 1

                         Standard orientation:
 ---------------------------------------------------------------------
 Center     Atomic      Atomic             Coordinates (Angstroms)
 Number     Number       Type             X           Y           Z
 ---------------------------------------------------------------------
      1          6           0       -0.966946   -0.549416    0.000000
      2          8           0       -2.136715   -0.445692    0.000000
      3          9           0       -0.335928   -1.725102    0.000000
      4          6           0        0.000000    0.660843    0.000000
      5          8           0       -0.405478    1.766520    0.000000
      6         17           0        1.715445    0.252396    0.000000
 ---------------------------------------------------------------------

 SCF Done:  E(RB3LYP) =  -786.891256352     A.U. after   14 cycles

 The electronic state is 1-A'.
 Alpha  occ. eigenvalues -- -101.57665 -24.75672 -19.20485 -19.19883 -10.39556
 Alpha  occ. eigenvalues --  -10.37427  -9.50810  -7.26963  -7.26261  -7.26081
 Alpha  occ. eigenvalues --   -1.30269  -1.15046  -1.12622  -0.89929  -0.74167
 Alpha  occ. eigenvalues --   -0.63908  -0.56787  -0.55812  -0.54566  -0.51178
 Alpha  occ. eigenvalues --   -0.48622  -0.47269  -0.42924  -0.39527  -0.36876
 Alpha  occ. eigenvalues --   -0.35210  -0.34247
 Alpha virt. eigenvalues --   -0.13739  -0.01905   0.00124   0.04380   0.06843
 Alpha virt. eigenvalues --    0.09259   0.09800   0.13598   0.15332   0.15760
 Alpha virt. eigenvalues --    0.15866   0.16908   0.18897   0.21429   0.22864

 Mulliken charges:
               1
     1  C    0.403858
     2  O   -0.198766
     3  F   -0.188752
     4  C    0.211632
     5  O   -0.179554
     6  Cl  -0.048417
 Sum of Mulliken charges =   0.00000

 Dipole moment (field-independent basis, Debye):
    X=              1.3928    Y=             -0.6921    Z=              0.0000  Tot=              1.5553
 Quadrupole moment (field-independent basis, Debye-Ang):
   XX=            -42.4522   YY=            -43.2001   ZZ=            -36.5525
   XY=              0.2049   XZ=              0.0000   YZ=              0.0000

 Normal termination of Gaussian 09 at Tue Jan 26 17:18:49 2016.
