 Gaussian 09, Revision D.01,
 Gaussian 09:  ES64L-G09RevD.01 24-Apr-2013

 ----------------------------------------------------------------------
 # B3LYP/def2QZVPP Int(Grid=UltraFineGrid) SCF(verytight,maxcycles=1000
 )
 ----------------------------------------------------------------------

 ----
 TEST
 ----
 Symbolic Z-matrix:
 Charge =  0 Multiplicity = 1

                         Standard orientation:
 ---------------------------------------------------------------------
 Center     Atomic      Atomic             Coordinates (Angstroms)
 Number     Number       Type             X           Y           Z
 ---------------------------------------------------------------------
      1          6           0        1.081221   -0.047722    0.068012
      2          8           0        1.903188    0.339755    0.811930
      3          9           0        1.239981   -1.121199   -0.717653
      4          6           0       -0.299489    0.579710   -0.131603
      5          8           0       -0.467358    1.689072   -0.490502
      6         17           0       -1.608051   -0.548927    0.251118
 ---------------------------------------------------------------------

 SCF Done:  E(RB3LYP) =  -786.891970747     A.U. after   14 cycles

 The electronic state is 1-A.
 Alpha  occ. eigenvalues -- -101.57922 -24.75807 -19.20781 -19.20067 -10.39784
 Alpha  occ. eigenvalues --  -10.37729  -9.51063  -7.27209  -7.26495  -7.26359
 Alpha  occ. eigenvalues --   -1.30220  -1.15090  -1.13072  -0.90222  -0.74871
 Alpha  occ. eigenvalues --   -0.64101  -0.57038  -0.55556  -0.54724  -0.51421
 Alpha  occ. eigenvalues --   -0.48941  -0.47348  -0.43296  -0.39816  -0.37071
 Alpha  occ. eigenvalues --   -0.36137  -0.33799
 Alpha virt. eigenvalues --   -0.11469  -0.05510  -0.01565   0.04453   0.06945
 Alpha virt. eigenvalues --    0.09587   0.10584   0.13674   0.14534   0.15130
 Alpha virt. eigenvalues --    0.16027   0.17589   0.18688   0.20816   0.24270

 Mulliken charges:
               1
     1  C    0.421041
     2  O   -0.220903
     3  F   -0.190095
     4  C    0.260942
     5  O   -0.200758
     6  Cl  -0.070227
 Sum of Mulliken charges =   0.00000

 Dipole moment (field-independent basis, Debye):
    X=             -0.8264    Y=             -0.9851    Z=             -0.2229  Tot=              1.3050
 Quadrupole moment (field-independent basis, Debye-Ang):
   XX=            -41.4258   YY=            -41.8647   ZZ=            -38.7610
   XY=              1.1080   XZ=             -2.1109   YZ=             -0.2339

 Normal termination of Gaussian 09 at Tue Jan 26 17:22:16 2016.
