============================== echo of input deck ==============================
title A
start A
echo

geometry units angstrom nocenter
symmetry group c1
 H         16.8400   6.5850   9.0220
 H         14.2700   7.1910   7.8260
 H         13.9330   8.8940   7.4880
 H         13.7260   7.8930   9.9770
 H         15.8640   7.4380  10.9890
 N         16.3210   9.4800  10.7360
 N         14.3200   9.8980   9.8740
 O         15.3920  11.5900  11.0540
 S         16.3420   8.4340   7.5140
 C         14.5320   8.4950   9.5470
 C         15.9360   8.1880  10.1890
 C         15.3320  10.4100  10.5800
 H         13.3970  10.3860   9.6610
 C         16.8950   7.6780   9.0930
 H         17.9290   7.9660   9.2970
 C         14.5910   8.2170   8.0320
 H         17.0580   9.6020  11.4320
end

basis
 H        library  H 6-31G
 N        library  N 6-31G
 O        library  O 6-31G
 S        library  S 6-31G
 C        library  C 6-31G
end

dft
 xc xpbe96 cpbe96
end

task dft energy
================================================================================

 Output coordinates in angstroms (scale by  1.889725989 to convert to a.u.)

  No.       Tag          Charge          X              Y              Z
 ---- ---------------- ---------- -------------- -------------- --------------
    1 H                    1.0000    16.84000000     6.58500000     9.02200000
    2 H                    1.0000    14.27000000     7.19100000     7.82600000
    3 H                    1.0000    13.93300000     8.89400000     7.48800000
    4 H                    1.0000    13.72600000     7.89300000     9.97700000
    5 H                    1.0000    15.86400000     7.43800000    10.98900000
    6 N                    7.0000    16.32100000     9.48000000    10.73600000
    7 N                    7.0000    14.32000000     9.89800000     9.87400000
    8 O                    8.0000    15.39200000    11.59000000    11.05400000
    9 S                   16.0000    16.34200000     8.43400000     7.51400000
   10 C                    6.0000    14.53200000     8.49500000     9.54700000
   11 C                    6.0000    15.93600000     8.18800000    10.18900000
   12 C                    6.0000    15.33200000    10.41000000    10.58000000
   13 H                    1.0000    13.39700000    10.38600000     9.66100000
   14 C                    6.0000    16.89500000     7.67800000     9.09300000
   15 H                    1.0000    17.92900000     7.96600000     9.29700000
   16 C                    6.0000    14.59100000     8.21700000     8.03200000
   17 H                    1.0000    17.05800000     9.60200000    11.43200000

         Total DFT energy =     -777.508675001182

                       DFT Final Molecular Orbital Analysis
                       ------------------------------------

 Vector   13  Occ=2.000000D+00  E=-5.683488D+00

 Vector   14  Occ=2.000000D+00  E=-9.568137D-01

 Vector   15  Occ=2.000000D+00  E=-8.748915D-01

 Vector   16  Occ=2.000000D+00  E=-8.218180D-01

 Vector   17  Occ=2.000000D+00  E=-7.747088D-01

 Vector   18  Occ=2.000000D+00  E=-6.772890D-01

 Vector   19  Occ=2.000000D+00  E=-6.674981D-01

 Vector   20  Occ=2.000000D+00  E=-5.834366D-01

 Vector   21  Occ=2.000000D+00  E=-5.561214D-01

 Vector   22  Occ=2.000000D+00  E=-5.441098D-01

 Vector   23  Occ=2.000000D+00  E=-4.842103D-01

 Vector   24  Occ=2.000000D+00  E=-4.565330D-01

 Vector   25  Occ=2.000000D+00  E=-4.513775D-01

 Vector   26  Occ=2.000000D+00  E=-4.349513D-01

 Vector   27  Occ=2.000000D+00  E=-3.997447D-01

 Vector   28  Occ=2.000000D+00  E=-3.714937D-01

 Vector   29  Occ=2.000000D+00  E=-3.615830D-01

 Vector   30  Occ=2.000000D+00  E=-3.532133D-01

 Vector   31  Occ=2.000000D+00  E=-3.406673D-01

 Vector   32  Occ=2.000000D+00  E=-3.391645D-01

 Vector   33  Occ=2.000000D+00  E=-3.219183D-01

 Vector   34  Occ=2.000000D+00  E=-2.837614D-01

 Vector   35  Occ=2.000000D+00  E=-2.068066D-01

 Vector   36  Occ=2.000000D+00  E=-1.980311D-01

 Vector   37  Occ=2.000000D+00  E=-1.917766D-01

 Vector   38  Occ=2.000000D+00  E=-1.831725D-01

 Vector   39  Occ=0.000000D+00  E= 1.301704D-03

 Vector   40  Occ=0.000000D+00  E= 2.262638D-02

 Vector   41  Occ=0.000000D+00  E= 2.745297D-02

 Vector   42  Occ=0.000000D+00  E= 5.429502D-02

 Vector   43  Occ=0.000000D+00  E= 6.084727D-02

 Vector   44  Occ=0.000000D+00  E= 6.674395D-02

 Vector   45  Occ=0.000000D+00  E= 7.966028D-02

 Vector   46  Occ=0.000000D+00  E= 1.012596D-01

 Vector   47  Occ=0.000000D+00  E= 1.095817D-01

 Vector   48  Occ=0.000000D+00  E= 1.115613D-01

 Vector   49  Occ=0.000000D+00  E= 1.361257D-01

 Vector   50  Occ=0.000000D+00  E= 1.512853D-01

 Vector   51  Occ=0.000000D+00  E= 1.528199D-01

 Vector   52  Occ=0.000000D+00  E= 1.607855D-01

 Vector   53  Occ=0.000000D+00  E= 2.123169D-01

 Vector   54  Occ=0.000000D+00  E= 2.362681D-01

 Vector   55  Occ=0.000000D+00  E= 2.663298D-01

 Vector   56  Occ=0.000000D+00  E= 3.085876D-01

 Vector   57  Occ=0.000000D+00  E= 3.484075D-01

 Vector   58  Occ=0.000000D+00  E= 3.627744D-01

 Vector   59  Occ=0.000000D+00  E= 3.783890D-01

 Vector   60  Occ=0.000000D+00  E= 3.947913D-01

 Vector   61  Occ=0.000000D+00  E= 4.058400D-01

 Vector   62  Occ=0.000000D+00  E= 4.958507D-01

 Vector   63  Occ=0.000000D+00  E= 5.215895D-01

     Multipole analysis of the density
     ---------------------------------

     L   x y z        total         alpha         beta         nuclear
     -   - - -        -----         -----         ----         -------
     0   0 0 0     -0.000000    -38.000000    -38.000000     76.000000

     1   1 0 0     -0.623792  -1120.756891  -1120.756891   2240.889990
     1   0 1 0     -2.006417   -650.306444   -650.306444   1298.606471
     1   0 0 1      0.164994   -673.854262   -673.854262   1347.873518

     2   2 0 0    -74.496233 -33199.810608 -33199.810608  66325.124984
     2   1 1 0    -70.842519 -19133.609743 -19133.609743  38196.376967
     2   1 0 1     -1.259657 -19851.033923 -19851.033923  39700.808189
     2   0 2 0   -121.114595 -11358.039504 -11358.039504  22594.964412
     2   0 1 1    -39.395304 -11670.827510 -11670.827510  23302.259716

 Total times  cpu:       49.7s     wall:      127.5s
