 Gaussian 09, Revision A.02,
 Gaussian 09:  EM64L-G09RevA.02 11-Jun-2009

 ----------------------------------------------------------------------
 # hf gen 6d 10f nosymm Scf(maxcycle=1000,verytight) int(grid=ultrafine
 )
 ----------------------------------------------------------------------

 -
 H
 -
 Symbolic Z-matrix:
 Charge =  0 Multiplicity = 1

                          Input orientation:
 ---------------------------------------------------------------------
 Center     Atomic      Atomic             Coordinates (Angstroms)
 Number     Number       Type             X           Y           Z
 ---------------------------------------------------------------------
      1          1           0        0.000000    0.000000    0.000000
      2          2           0        1.000000    0.000000    0.000000
      3          1           0        1.000000    1.000000    0.000000
 ---------------------------------------------------------------------

 SCF Done:  E(RHF) =  -2.89826465176     A.U. after    9 cycles

 Alpha  occ. eigenvalues --   -1.01607  -0.19569
 Alpha virt. eigenvalues --    0.14346   0.31905   0.48547   0.52035   0.56043
 Alpha virt. eigenvalues --    0.68495   1.59502

 Mulliken atomic charges:
              1
     1  H   -0.698193
     2  He   1.396385
     3  H   -0.698193
 Sum of Mulliken atomic charges =   0.00000

 Dipole moment (field-independent basis, Debye):
    X=              1.0407    Y=             -1.0407    Z=              0.0000  Tot=              1.4718
 Quadrupole moment (field-independent basis, Debye-Ang):
   XX=             -4.6718   YY=             -6.7532   ZZ=             -3.4632
   XY=             -4.2010   XZ=              0.0000   YZ=              0.0000

 Normal termination of Gaussian 09 at Sat Nov 28 11:03:26 2015.
