============================== echo of input deck ==============================
title anDIR-01_00A
start anDIR-01_00A
echo

geometry units angstrom nocenter
 H          9.2319  11.8462  10.9618
 H         10.5112  11.0418  10.9785
 O          9.5518  10.9436  10.9832
end

basis
 H        library  H 6-31G
 H        library  H 6-31G
 O        library  O 6-31G
end

dft
 xc xpbe96 cpbe96
end

task dft energy
================================================================================

 Output coordinates in angstroms (scale by  1.889725989 to convert to a.u.)

  No.       Tag          Charge          X              Y              Z
 ---- ---------------- ---------- -------------- -------------- --------------
    1 H                    1.0000     0.53390354     0.74738482     0.00000000
    2 H                    1.0000     0.52097525    -0.76383310     0.00000000
    3 O                    8.0000    -0.06646697     0.00103639     0.00000000

         Total DFT energy =      -76.298237604567

                       DFT Final Molecular Orbital Analysis
                       ------------------------------------

 Vector    1  Occ=2.000000D+00  E=-1.875055D+01  Symmetry=a'

 Vector    2  Occ=2.000000D+00  E=-9.275201D-01  Symmetry=a'

 Vector    3  Occ=2.000000D+00  E=-4.727516D-01  Symmetry=a'

 Vector    4  Occ=2.000000D+00  E=-2.963905D-01  Symmetry=a'

 Vector    5  Occ=2.000000D+00  E=-2.278264D-01  Symmetry=a"

 Vector    6  Occ=0.000000D+00  E= 3.483778D-02  Symmetry=a'

 Vector    7  Occ=0.000000D+00  E= 1.217671D-01  Symmetry=a'

 Vector    8  Occ=0.000000D+00  E= 7.621440D-01  Symmetry=a'

 Vector    9  Occ=0.000000D+00  E= 8.199637D-01  Symmetry=a'

 Vector   10  Occ=0.000000D+00  E= 8.416405D-01  Symmetry=a"

 Vector   11  Occ=0.000000D+00  E= 9.142083D-01  Symmetry=a'

 Vector   12  Occ=0.000000D+00  E= 1.013309D+00  Symmetry=a'

 Vector   13  Occ=0.000000D+00  E= 1.371278D+00  Symmetry=a'

     Multipole analysis of the density
     ---------------------------------

     L   x y z        total         alpha         beta         nuclear
     -   - - -        -----         -----         ----         -------
     0   0 0 0     -0.000000     -5.000000     -5.000000     10.000000

     1   1 0 0      0.957157     -0.015720     -0.015720      0.988597
     1   0 1 0     -0.011027      0.002194      0.002194     -0.015415
     1   0 0 1      0.000000      0.000000      0.000000      0.000000

     2   2 0 0     -4.385495     -3.249445     -3.249445      2.113395
     2   1 1 0      0.006419      0.002241      0.002241      0.001936
     2   1 0 1      0.000000      0.000000      0.000000      0.000000
     2   0 2 0     -3.253324     -3.665800     -3.665800      4.078276
     2   0 1 1      0.000000      0.000000      0.000000      0.000000

 Total times  cpu:        0.6s     wall:        3.1s
