 Output coordinates in angstroms (scale by  1.889725989 to convert to a.u.)

  No.       Tag          Charge          X              Y              Z
 ---- ---------------- ---------- -------------- -------------- --------------
    1 H                    1.0000     0.00000000     0.00000000     0.00000000
    2 H                    1.0000     1.00000000     0.00000000     0.00000000
    3 H                    1.0000     1.00000000     1.00000000     0.00000000

         Total SCF energy =     -1.252163702831

 Vector    1  Occ=2.000000D+00  E=-1.039273D+00

 Vector    2  Occ=0.000000D+00  E=-2.985612D-01

 Vector    3  Occ=0.000000D+00  E=-1.741627D-01

 Vector    4  Occ=0.000000D+00  E=-1.201896D-01

 Vector    5  Occ=0.000000D+00  E=-6.719522D-02

 Vector    6  Occ=0.000000D+00  E=-5.681160D-02

 Vector    7  Occ=0.000000D+00  E=-3.616458D-02

 Vector    8  Occ=0.000000D+00  E= 8.751971D-02

 Vector    9  Occ=0.000000D+00  E= 1.214630D-01

 Vector   10  Occ=0.000000D+00  E= 1.369712D-01

 Vector   11  Occ=0.000000D+00  E= 1.441758D-01

 Vector   12  Occ=0.000000D+00  E= 1.849510D-01

 Vector   13  Occ=0.000000D+00  E= 2.741067D-01

 Vector   14  Occ=0.000000D+00  E= 3.249620D-01

 Vector   15  Occ=0.000000D+00  E= 3.752731D-01

 Vector   16  Occ=0.000000D+00  E= 4.900541D-01

 Vector   17  Occ=0.000000D+00  E= 4.930784D-01

 Vector   18  Occ=0.000000D+00  E= 5.994008D-01

       Multipole analysis of the density wrt the origin
       ------------------------------------------------

     L   x y z        total         open         nuclear
     -   - - -        -----         ----         -------
     0   0 0 0      1.000000      0.000000      3.000000

     1   1 0 0      1.123995      0.000000      3.779452
     1   0 1 0      0.765731      0.000000      1.889726
     1   0 0 1     -0.000000      0.000000      0.000000

     2   2 0 0      1.493711      0.000000      7.142129
     2   1 1 0      1.719154      0.000000      3.571064
     2   1 0 1     -0.000000      0.000000      0.000000
     2   0 2 0      0.816689      0.000000      3.571064
     2   0 1 1     -0.000000      0.000000      0.000000

 Total times  cpu:        0.1s     wall:        0.1s
