 Gaussian 09, Revision A.02,
 Gaussian 09:  EM64L-G09RevA.02 11-Jun-2009

 ----------------------------------------------------------------------
 # hf gen 6d 10f nosymm Scf(maxcycle=1000,verytight) int(grid=ultrafine
 )
 ----------------------------------------------------------------------

 -
 H
 -
 Symbolic Z-matrix:
 Charge =  0 Multiplicity = 1

                          Input orientation:
 ---------------------------------------------------------------------
 Center     Atomic      Atomic             Coordinates (Angstroms)
 Number     Number       Type             X           Y           Z
 ---------------------------------------------------------------------
      1          1           0        0.000000    0.000000    0.000000
      2          8           0        1.000000    0.000000    0.000000
      3          1           0        1.000000    1.000000    0.000000
 ---------------------------------------------------------------------

 SCF Done:  E(RHF) =  -76.0308596885     A.U. after   10 cycles

 Alpha  occ. eigenvalues --  -20.58919  -1.34620  -0.66765  -0.60568  -0.51001
 Alpha virt. eigenvalues --    0.03322   0.05901   0.16919   0.20023   0.21947
 Alpha virt. eigenvalues --    0.23715   0.27135   0.34958   0.36638   0.39143
 Alpha virt. eigenvalues --    0.40726   0.54700   0.58607   0.65655   0.76407

 Mulliken atomic charges:
              1
     1  H    0.092349
     2  O   -0.184699
     3  H    0.092349
 Sum of Mulliken atomic charges =   0.00000

 Dipole moment (field-independent basis, Debye):
    X=             -1.5946    Y=              1.5946    Z=              0.0000  Tot=              2.2551
 Quadrupole moment (field-independent basis, Debye-Ang):
   XX=             -8.2110   YY=             -5.0217   ZZ=             -7.6643
   XY=              1.7465   XZ=              0.0000   YZ=              0.0000

 Normal termination of Gaussian 09 at Sat Nov 28 12:14:10 2015.
