 Gaussian 09, Revision A.02,
 Gaussian 09:  EM64L-G09RevA.02 11-Jun-2009

 ----------------------------------------------------------------------
 # hf gen 6d 10f nosymm Scf(maxcycle=1000,verytight) int(grid=ultrafine
 )
 ----------------------------------------------------------------------

 -
 H
 -
 Symbolic Z-matrix:
 Charge =  1 Multiplicity = 1

                          Input orientation:
 ---------------------------------------------------------------------
 Center     Atomic      Atomic             Coordinates (Angstroms)
 Number     Number       Type             X           Y           Z
 ---------------------------------------------------------------------
      1          1           0        0.000000    0.000000    0.000000
      2          2           0        1.000000    0.000000    0.000000
 ---------------------------------------------------------------------

 SCF Done:  E(RHF) =  -1.58272801405     A.U. after    6 cycles

 Alpha  occ. eigenvalues --   -1.05768
 Alpha virt. eigenvalues --   -0.17411   0.02130   0.02130   0.04133

 Mulliken atomic charges:
              1
     1  H   -0.213353
     2  He   1.213353
 Sum of Mulliken atomic charges =   1.00000

 Dipole moment (field-independent basis, Debye):
    X=              3.9660    Y=              0.0000    Z=              0.0000  Tot=              3.9660
 Quadrupole moment (field-independent basis, Debye-Ang):
   XX=              2.0444   YY=             -3.3434   ZZ=             -3.3434
   XY=              0.0000   XZ=              0.0000   YZ=              0.0000

 Normal termination of Gaussian 09 at Sat Nov 28 11:21:11 2015.
