 Output coordinates in angstroms (scale by  1.889725989 to convert to a.u.)

  No.       Tag          Charge          X              Y              Z
 ---- ---------------- ---------- -------------- -------------- --------------
    1 H                    1.0000     0.00000000     0.00000000     0.00000000
    2 O                    8.0000     1.00000000     0.00000000     0.00000000
    3 H                    1.0000     1.00000000     1.00000000     0.00000000

         Total SCF energy =    -76.030859701221

 Vector    2  Occ=2.000000D+00  E=-1.346208D+00

 Vector    3  Occ=2.000000D+00  E=-6.676567D-01

 Vector    4  Occ=2.000000D+00  E=-6.056832D-01

 Vector    5  Occ=2.000000D+00  E=-5.100148D-01

 Vector    6  Occ=0.000000D+00  E= 3.322450D-02

 Vector    7  Occ=0.000000D+00  E= 5.900569D-02

 Vector    8  Occ=0.000000D+00  E= 1.691874D-01

 Vector    9  Occ=0.000000D+00  E= 2.002341D-01

 Vector   10  Occ=0.000000D+00  E= 2.194674D-01

 Vector   11  Occ=0.000000D+00  E= 2.371451D-01

 Vector   12  Occ=0.000000D+00  E= 2.713495D-01

 Vector   13  Occ=0.000000D+00  E= 3.495754D-01

 Vector   14  Occ=0.000000D+00  E= 3.663834D-01

 Vector   15  Occ=0.000000D+00  E= 3.914324D-01

 Vector   16  Occ=0.000000D+00  E= 4.072636D-01

 Vector   17  Occ=0.000000D+00  E= 5.470002D-01

       Multipole analysis of the density wrt the origin
       ------------------------------------------------

     L   x y z        total         open         nuclear
     -   - - -        -----         ----         -------
     0   0 0 0     -0.000000      0.000000     10.000000

     1   1 0 0     -0.627350      0.000000     17.007534
     1   0 1 0      0.627350      0.000000      1.889726
     1   0 0 1     -0.000000      0.000000      0.000000

     2   2 0 0     -6.104611      0.000000     32.139579
     2   1 1 0      1.298461      0.000000      3.571064
     2   1 0 1     -0.000000      0.000000      0.000000
     2   0 2 0     -3.733572      0.000000      3.571064
     2   0 1 1     -0.000000      0.000000      0.000000

 Total times  cpu:        0.4s     wall:        0.4s
