 Output coordinates in angstroms (scale by  1.889725989 to convert to a.u.)

  No.       Tag          Charge          X              Y              Z
 ---- ---------------- ---------- -------------- -------------- --------------
    1 O2V                  8.0000    -0.07632856    -0.30394548    -0.94821239
    2 H2V                  1.0000    -0.14558745    -0.66793027     1.01217576
    3 V2O                  0.0000     0.91950427    -0.69940130     0.08224192
    4 V2H                  0.0000    -1.03760939    -0.31287712     0.08849928
    5 O                    8.0000     0.32506733     2.30681575    -0.33384335
    6 H                    1.0000     0.23110326     1.78215773     1.58874240
    7 C                    6.0000    -0.02746693     0.05946266     0.21618939
    8 C                    6.0000     0.19013427     1.47477363     0.54938199

         Total DFT energy =     -224.514105926683

                       DFT Final Molecular Orbital Analysis
                       ------------------------------------

 Vector    5  Occ=2.000000D+00  E=-9.497615D-01

 Vector    6  Occ=2.000000D+00  E=-9.188678D-01

 Vector    7  Occ=2.000000D+00  E=-6.022294D-01

 Vector    8  Occ=2.000000D+00  E=-4.569415D-01

 Vector    9  Occ=2.000000D+00  E=-4.320459D-01

 Vector   10  Occ=2.000000D+00  E=-3.359463D-01

 Vector   11  Occ=2.000000D+00  E=-3.048456D-01

 Vector   12  Occ=2.000000D+00  E=-2.904256D-01

 Vector   13  Occ=2.000000D+00  E=-2.623907D-01

 Vector   14  Occ=2.000000D+00  E=-1.460944D-01

 Vector   15  Occ=2.000000D+00  E=-9.772825D-02

 Vector   16  Occ=0.000000D+00  E=-4.727079D-02

 Vector   17  Occ=0.000000D+00  E= 8.437885D-02

 Vector   18  Occ=0.000000D+00  E= 3.363962D-01

 Vector   19  Occ=0.000000D+00  E= 3.584421D-01

 Vector   20  Occ=0.000000D+00  E= 4.413823D-01

 Vector   21  Occ=0.000000D+00  E= 4.854725D-01

 Vector   22  Occ=0.000000D+00  E= 6.246903D-01

 Vector   23  Occ=0.000000D+00  E= 8.649396D-01

 Vector   24  Occ=0.000000D+00  E= 9.962605D-01

 Vector   25  Occ=0.000000D+00  E= 2.365811D+00

 Total times  cpu:        5.3s     wall:        5.4s
