 Gaussian 09, Revision A.02,
 Gaussian 09:  EM64L-G09RevA.02 11-Jun-2009

 ----------------------------------------------------------------------
 # hf gen 6d 10f nosymm Scf(maxcycle=1000,verytight) int(grid=ultrafine
 )
 ----------------------------------------------------------------------

 -
 H
 -
 Symbolic Z-matrix:
 Charge = -1 Multiplicity = 1

                          Input orientation:
 ---------------------------------------------------------------------
 Center     Atomic      Atomic             Coordinates (Angstroms)
 Number     Number       Type             X           Y           Z
 ---------------------------------------------------------------------
      1          1           0        0.000000    0.000000    0.000000
 ---------------------------------------------------------------------

 SCF Done:  E(RHF) =  0.105030719252     A.U. after   10 cycles

 Alpha  occ. eigenvalues --    0.18904
 Alpha virt. eigenvalues --    0.24476   0.37333   0.37333   0.81373   0.81373
 Alpha virt. eigenvalues --    0.83518

 Mulliken atomic charges:
              1
     1  H   -1.000000
 Sum of Mulliken atomic charges =  -1.00000

 Dipole moment (field-independent basis, Debye):
    X=              0.0000    Y=              0.0000    Z=              0.0000  Tot=              0.0000
 Quadrupole moment (field-independent basis, Debye-Ang):
   XX=             -7.6441   YY=            -22.5473   ZZ=             -7.9695
   XY=              0.4221   XZ=             -0.0635   YZ=              2.2430

 Normal termination of Gaussian 09 at Sun Nov 29 07:55:10 2015.
