 Gaussian 09, Revision A.02,
 Gaussian 09:  EM64L-G09RevA.02 11-Jun-2009

 ----------------------------------------------------------------------
 # hf gen 6d 10f nosymm Scf(maxcycle=1000,verytight) int(grid=ultrafine
 )
 ----------------------------------------------------------------------

 -
 H
 -
 Symbolic Z-matrix:
 Charge =  0 Multiplicity = 1

                          Input orientation:
 ---------------------------------------------------------------------
 Center     Atomic      Atomic             Coordinates (Angstroms)
 Number     Number       Type             X           Y           Z
 ---------------------------------------------------------------------
      1          1           0        0.000000    0.000000    0.000000
      2          2           0        1.000000    0.000000    0.000000
      3          1           0        1.000000    1.000000    0.000000
 ---------------------------------------------------------------------

 SCF Done:  E(RHF) =  -2.11991909230     A.U. after    7 cycles

 Alpha  occ. eigenvalues --   -0.74429  -0.32737
 Alpha virt. eigenvalues --    0.08669   0.20659   0.60534   0.67265

 Mulliken atomic charges:
              1
     1  H    0.021649
     2  He  -0.043298
     3  H    0.021649
 Sum of Mulliken atomic charges =   0.00000

 Dipole moment (field-independent basis, Debye):
    X=              0.8517    Y=             -0.8517    Z=              0.0000  Tot=              1.2045
 Quadrupole moment (field-independent basis, Debye-Ang):
   XX=             -6.0193   YY=             -7.7228   ZZ=             -5.5898
   XY=             -2.7321   XZ=              0.0000   YZ=              0.0000

 Normal termination of Gaussian 09 at Sat Nov 28 11:39:26 2015.
