 Gaussian 09, Revision A.02,
 Gaussian 09:  EM64L-G09RevA.02 11-Jun-2009

 ----------------------------------------------------------------------
 # hf gen 6d 10f nosymm Scf(maxcycle=1000,verytight) int(grid=ultrafine
 )
 ----------------------------------------------------------------------

 -
 H
 -
 Symbolic Z-matrix:
 Charge =  0 Multiplicity = 1

                          Input orientation:
 ---------------------------------------------------------------------
 Center     Atomic      Atomic             Coordinates (Angstroms)
 Number     Number       Type             X           Y           Z
 ---------------------------------------------------------------------
      1          1           0        0.000000    0.000000    0.000000
      2          2           0        1.000000    0.000000    0.000000
      3          1           0        1.000000    1.000000    0.000000
 ---------------------------------------------------------------------

 SCF Done:  E(RHF) =  -2.22812852359     A.U. after    6 cycles

 Alpha  occ. eigenvalues --   -0.70669  -0.03714
 Alpha virt. eigenvalues --    0.90649

 Mulliken atomic charges:
              1
     1  H   -0.695485
     2  He   1.390970
     3  H   -0.695485
 Sum of Mulliken atomic charges =   0.00000

 Dipole moment (field-independent basis, Debye):
    X=              3.1257    Y=             -3.1257    Z=              0.0000  Tot=              4.4204
 Quadrupole moment (field-independent basis, Debye-Ang):
   XX=              0.6410   YY=             -5.6103   ZZ=             -2.2924
   XY=             -3.3913   XZ=              0.0000   YZ=              0.0000

 Normal termination of Gaussian 09 at Fri Nov 27 09:04:58 2015.
