 Output coordinates in angstroms (scale by  1.889725989 to convert to a.u.)

  No.       Tag          Charge          X              Y              Z
 ---- ---------------- ---------- -------------- -------------- --------------
    1 H                    1.0000     0.00000000     0.00000000     0.00000000
    2 H                    1.0000     1.00000000     1.00000000     0.00000000

         Total SCF energy =     -1.019702511291

 Vector    1  Occ=2.000000D+00  E=-4.518337D-01

 Vector    2  Occ=0.000000D+00  E= 2.403715D-02

 Vector    3  Occ=0.000000D+00  E= 7.682808D-02

 Vector    4  Occ=0.000000D+00  E= 1.296218D-01

 Vector    5  Occ=0.000000D+00  E= 2.619431D-01

 Vector    6  Occ=0.000000D+00  E= 2.619431D-01

 Vector    7  Occ=0.000000D+00  E= 3.869649D-01

 Vector    8  Occ=0.000000D+00  E= 4.153323D-01

 Vector    9  Occ=0.000000D+00  E= 4.153323D-01

 Vector   10  Occ=0.000000D+00  E= 5.622076D-01

 Vector   11  Occ=0.000000D+00  E= 8.213379D-01

       Multipole analysis of the density wrt the origin
       ------------------------------------------------

     L   x y z        total         open         nuclear
     -   - - -        -----         ----         -------
     0   0 0 0     -0.000000      0.000000      2.000000

     1   1 0 0     -0.000000      0.000000      1.889726
     1   0 1 0     -0.000000      0.000000      1.889726
     1   0 0 1     -0.000000      0.000000      0.000000

     2   2 0 0     -1.592674      0.000000      3.571064
     2   1 1 0      0.698024      0.000000      3.571064
     2   1 0 1     -0.000000      0.000000      0.000000
     2   0 2 0     -1.592674      0.000000      3.571064
     2   0 1 1     -0.000000      0.000000      0.000000

 Total times  cpu:        0.0s     wall:        0.1s
