 Output coordinates in angstroms (scale by  1.889725989 to convert to a.u.)

  No.       Tag          Charge          X              Y              Z
 ---- ---------------- ---------- -------------- -------------- --------------
    1 O2V                  7.2000    -0.07632856    -0.30394548    -0.94821239
    2 H2V                  0.9000    -0.14558745    -0.66793027     1.01217576
    3 V2O                  0.8000     0.91950427    -0.69940130     0.08224192
    4 V2H                  0.1000    -1.03760939    -0.31287712     0.08849928
    5 O                    8.0000     0.32506733     2.30681575    -0.33384335
    6 H                    1.0000     0.23110326     1.78215773     1.58874240
    7 C                    6.0000    -0.02746693     0.05946266     0.21618939
    8 C                    6.0000     0.19013427     1.47477363     0.54938199

         Total DFT energy =     -211.144540940769

                       DFT Final Molecular Orbital Analysis
                       ------------------------------------

 Vector    5  Occ=2.000000D+00  E=-9.806382D-01

 Vector    6  Occ=2.000000D+00  E=-8.981648D-01

 Vector    7  Occ=2.000000D+00  E=-6.426146D-01

 Vector    8  Occ=2.000000D+00  E=-5.193715D-01

 Vector    9  Occ=2.000000D+00  E=-4.862360D-01

 Vector   10  Occ=2.000000D+00  E=-4.353743D-01

 Vector   11  Occ=2.000000D+00  E=-4.011042D-01

 Vector   12  Occ=2.000000D+00  E=-3.568409D-01

 Vector   13  Occ=2.000000D+00  E=-3.403470D-01

 Vector   14  Occ=2.000000D+00  E=-2.430982D-01

 Vector   15  Occ=2.000000D+00  E=-1.880889D-01

 Vector   16  Occ=0.000000D+00  E=-1.526077D-01

 Vector   17  Occ=0.000000D+00  E=-7.262955D-02

 Vector   18  Occ=0.000000D+00  E=-1.274059D-02

 Vector   19  Occ=0.000000D+00  E= 1.914731D-02

 Vector   20  Occ=0.000000D+00  E= 3.212436D-02

 Vector   21  Occ=0.000000D+00  E= 5.444818D-02

 Vector   22  Occ=0.000000D+00  E= 7.908544D-02

 Vector   23  Occ=0.000000D+00  E= 9.627523D-02

 Vector   24  Occ=0.000000D+00  E= 1.234071D-01

 Vector   25  Occ=0.000000D+00  E= 1.547279D-01

 Vector   26  Occ=0.000000D+00  E= 1.711420D-01

 Vector   27  Occ=0.000000D+00  E= 1.969761D-01

 Vector   28  Occ=0.000000D+00  E= 2.007621D-01

 Vector   29  Occ=0.000000D+00  E= 2.155001D-01

 Vector   30  Occ=0.000000D+00  E= 2.337155D-01

 Vector   31  Occ=0.000000D+00  E= 2.489897D-01

 Vector   32  Occ=0.000000D+00  E= 2.575351D-01

 Vector   33  Occ=0.000000D+00  E= 2.712490D-01

 Vector   34  Occ=0.000000D+00  E= 2.940901D-01

 Vector   35  Occ=0.000000D+00  E= 2.973979D-01

 Vector   36  Occ=0.000000D+00  E= 3.071532D-01

 Vector   37  Occ=0.000000D+00  E= 3.305143D-01

 Vector   38  Occ=0.000000D+00  E= 3.528965D-01

 Vector   39  Occ=0.000000D+00  E= 3.567394D-01

 Vector   40  Occ=0.000000D+00  E= 3.690422D-01

 Vector   41  Occ=0.000000D+00  E= 3.965415D-01

 Vector   42  Occ=0.000000D+00  E= 4.365211D-01

 Vector   43  Occ=0.000000D+00  E= 4.606681D-01

 Vector   44  Occ=0.000000D+00  E= 4.636332D-01

 Vector   45  Occ=0.000000D+00  E= 4.960939D-01

 Vector   46  Occ=0.000000D+00  E= 5.194306D-01

 Total times  cpu:     3216.0s     wall:     3834.0s
