 Output coordinates in angstroms (scale by  1.889725989 to convert to a.u.)

  No.       Tag          Charge          X              Y              Z
 ---- ---------------- ---------- -------------- -------------- --------------
    1 H                    1.0000     0.00000000     0.00000000     0.00000000
    2 H                    1.0000     1.00000000     0.00000000     0.00000000
    3 H                    1.0000     1.00000000     1.00000000     0.00000000

         Total SCF energy =     -1.515334666078

 Vector    1  Occ=2.000000D+00  E=-4.181128D-01

 Vector    2  Occ=2.000000D+00  E= 4.529771D-03

 Vector    3  Occ=0.000000D+00  E= 2.017692D-01

 Vector    4  Occ=0.000000D+00  E= 2.120485D-01

 Vector    5  Occ=0.000000D+00  E= 2.654678D-01

 Vector    6  Occ=0.000000D+00  E= 4.037635D-01

 Vector    7  Occ=0.000000D+00  E= 4.524218D-01

 Vector    8  Occ=0.000000D+00  E= 5.689062D-01

 Vector    9  Occ=0.000000D+00  E= 6.005568D-01

 Vector   10  Occ=0.000000D+00  E= 6.008202D-01

 Vector   11  Occ=0.000000D+00  E= 6.168633D-01

 Vector   12  Occ=0.000000D+00  E= 6.461628D-01

       Multipole analysis of the density wrt the origin
       ------------------------------------------------

     L   x y z        total         open         nuclear
     -   - - -        -----         ----         -------
     0   0 0 0     -1.000000      0.000000      3.000000

     1   1 0 0     -0.978501      0.000000      3.779452
     1   0 1 0     -0.911225      0.000000      1.889726
     1   0 0 1     -0.000000      0.000000      0.000000

     2   2 0 0    -14.951328      0.000000      7.142129
     2   1 1 0     -7.300233      0.000000      3.571064
     2   1 0 1     -0.000000      0.000000      0.000000
     2   0 2 0    -14.824195      0.000000      3.571064
     2   0 1 1     -0.000000      0.000000      0.000000

 Total times  cpu:        0.1s     wall:        0.1s
