 Output coordinates in angstroms (scale by  1.889725989 to convert to a.u.)

  No.       Tag          Charge          X              Y              Z
 ---- ---------------- ---------- -------------- -------------- --------------
    1 H                    1.0000     0.00000000     0.00000000     0.00000000
    2 O                    8.0000     1.00000000     0.00000000     0.00000000
    3 H                    1.0000     1.00000000     1.00000000     0.00000000

         Total DFT energy =      -76.439621481880

                       DFT Final Molecular Orbital Analysis
                       ------------------------------------

 Vector    1  Occ=2.000000D+00  E=-1.917236D+01

 Vector    2  Occ=2.000000D+00  E=-1.018668D+00

 Vector    3  Occ=2.000000D+00  E=-4.986537D-01

 Vector    4  Occ=2.000000D+00  E=-4.243721D-01

 Vector    5  Occ=2.000000D+00  E=-3.232445D-01

 Vector    6  Occ=0.000000D+00  E=-3.055471D-02

 Vector    7  Occ=0.000000D+00  E= 2.219466D-02

 Vector    8  Occ=0.000000D+00  E= 9.341731D-02

 Vector    9  Occ=0.000000D+00  E= 1.204377D-01

 Vector   10  Occ=0.000000D+00  E= 1.299740D-01

 Vector   11  Occ=0.000000D+00  E= 1.372069D-01

 Vector   12  Occ=0.000000D+00  E= 1.718965D-01

 Vector   13  Occ=0.000000D+00  E= 2.384961D-01

 Vector   14  Occ=0.000000D+00  E= 2.567074D-01

 Vector   15  Occ=0.000000D+00  E= 2.805076D-01

 Vector   16  Occ=0.000000D+00  E= 2.924425D-01

 Vector   17  Occ=0.000000D+00  E= 4.445413D-01

 Vector   18  Occ=0.000000D+00  E= 4.529881D-01

 Vector   19  Occ=0.000000D+00  E= 5.117921D-01

     Multipole analysis of the density
     ---------------------------------

     L   x y z        total         alpha         beta         nuclear
     -   - - -        -----         -----         ----         -------
     0   0 0 0     -0.000000     -5.000000     -5.000000     10.000000

     1   1 0 0     -0.576294     -8.791914     -8.791914     17.007534
     1   0 1 0      0.576294     -0.656716     -0.656716      1.889726
     1   0 0 1     -0.000000     -0.000000     -0.000000      0.000000

     2   2 0 0     -6.123968    -19.131773    -19.131773     32.139579
     2   1 1 0      1.230973     -1.170046     -1.170046      3.571064
     2   1 0 1     -0.000000     -0.000000     -0.000000      0.000000
     2   0 2 0     -3.945893     -3.758479     -3.758479      3.571064
     2   0 1 1     -0.000000     -0.000000     -0.000000      0.000000

 Total times  cpu:        4.2s     wall:        3.7s
