 Output coordinates in angstroms (scale by  1.889725989 to convert to a.u.)

  No.       Tag          Charge          X              Y              Z
 ---- ---------------- ---------- -------------- -------------- --------------
    1 H                    1.0000     0.00000000     0.00000000     0.00000000

         Total SCF energy =     -0.486780276414

 Vector    1  Occ=2.000000D+00  E=-4.495867D-02

 Vector    2  Occ=0.000000D+00  E= 2.817287D-01

 Vector    3  Occ=0.000000D+00  E= 5.589607D-01

 Vector    4  Occ=0.000000D+00  E= 5.589607D-01

 Vector    5  Occ=0.000000D+00  E= 5.589607D-01

 Vector    6  Occ=0.000000D+00  E= 1.088533D+00

 Vector    7  Occ=0.000000D+00  E= 2.139298D+00

 Vector    8  Occ=0.000000D+00  E= 2.139298D+00

 Vector    9  Occ=0.000000D+00  E= 2.139298D+00

       Multipole analysis of the density wrt the origin
       ------------------------------------------------

     L   x y z        total         open         nuclear
     -   - - -        -----         ----         -------
     0   0 0 0     -1.000000      0.000000      1.000000

     1   1 0 0      0.000000      0.000000      0.000000
     1   0 1 0      0.000000      0.000000      0.000000
     1   0 0 1     -0.000000      0.000000      0.000000

     2   2 0 0     -6.012959      0.000000      0.000000
     2   1 1 0     -0.000000      0.000000      0.000000
     2   1 0 1      0.000000      0.000000      0.000000
     2   0 2 0     -6.012959      0.000000      0.000000
     2   0 1 1      0.000000      0.000000      0.000000

 Total times  cpu:        0.0s     wall:        0.1s
